HEADER
"PSFversion" "1.00"
"P0_barv" "p0_barv"
"P1_barv" "p1_barv"
"P2_barv" "p2_barv"
"P3_barv" "p3_barv"
"Gndv" "gndv"
"Vddv" "vddv"
"Prop1v" "prop1v"
"Prop3v" "prop3v"
"Prop2v" "prop2v"
"Prop0v" "prop0v"
"BPv" "bpv"
