HEADER
"PSFversion" "1.00"
"Co3mux_barv" "co3mux_barv"
"Cinv" "cinv"
"Vddv" "vddv"
"Co3v" "co3v"
"Gndv" "gndv"
