HEADER
"PSFversion" "1.00"
"Co_0v" "co_0v"
"Co_1v" "co_1v"
"Co_2v" "co_2v"
"Co_3v" "co_3v"
"Sum0v" "sum0v"
"Sum1v" "sum1v"
"Sum2v" "sum2v"
"Sum3v" "sum3v"
"G0v" "g0v"
"G3v" "g3v"
"G2v" "g2v"
"G1v" "g1v"
"A0v" "a0v"
"B0v" "b0v"
"A1v" "a1v"
"B1v" "b1v"
"A2v" "a2v"
"B2v" "b2v"
"A3v" "a3v"
"B3v" "b3v"
"P0v" "p0v"
"P3v" "p3v"
"P1v" "p1v"
"P2v" "p2v"
"Cinv" "cinv"
"Co3mux_barv" "co3mux_barv"
"Vddv" "vddv"
"Co3_muxv" "co3_muxv"
"gnd!v" "0v"
