HEADER
"PSFversion" "1.00"
"Sumv" "sumv"
"Carryv" "carryv"
"Vddv" "vddv"
"Gndv" "gndv"
"Cinv" "cinv"
"Pv" "pv"
"Gv" "gv"
