HEADER
"PSFversion" "1.00"
"Gv" "gv"
"Bv" "bv"
"B_barv" "b_barv"
"Av" "av"
"A_barv" "a_barv"
"Gndv" "gndv"
"Vddv" "vddv"
