HEADER
"PSFversion" "1.00"
"Vddv" "vddv"
"Gndv" "gndv"
"Av" "av"
"Pv" "pv"
"Bv" "bv"
"B_barv" "b_barv"
"A_barv" "a_barv"
