HEADER
"PSFversion" "1.00"
"Vddv" "vddv"
"Gndv" "gndv"
"Cin_barv" "cin_barv"
"Sumv" "sumv"
"Pv" "pv"
"Cinv" "cinv"
"P_barv" "p_barv"
