HEADER
"PSFversion" "1.00"
"Time Stamp" "Nov 23 21:15:13 2016"
TYPE
"variable" STRUCT(
"value" FLOAT DOUBLE
) PROP( "key" "element" )
VALUE
"beta" "variable" ( 2.6 ) PROP( )
"TEMPDC" "variable" ( 25.0 ) PROP( )
END
