HEADER
"PSFversion" "1.00"
"+2v" "m0v"
"+3v" "m1v"
"+13v" "c2v"
"+2n +3n" "NCSU_Analog_Parts_pmos4_hspiceD"
"+12v" "c3v"
"+11v" "c4v"
"+10v" "c5v"
"+9v" "c6v"
"+8v" "c7v"
"+7v" "c8v"
"+6v" "c9v"
"+5v" "c10v"
"+4v" "c11v"
"+0v" "m12v"
"+13n +12n +11n +10n +9n +8n +7n +6n +5n +4n" "NCSU_Analog_Parts_pcapacitor_hspiceD"
"+1v" "m13v"
"+0n +1n" "NCSU_Analog_Parts_nmos4_hspiceD"
