HEADER
"PSFversion" "1.00"
"design" "(\"Project_416\" \"CBA_4bitTest\" \"schematic\" \"\")"
"simulator" "hspiceD"
"temperature" "25.0"
"host" ""
"date" "Nov 23 23:10:08 2016"
"title" ""
"analysisList" "()"
END
