HEADER
"PSFversion" "1.00"
"Time Stamp" "Nov 23 23:10:08 2016"
TYPE
"variable" STRUCT(
"value" FLOAT DOUBLE
) PROP( "key" "element" )
VALUE
"TEMPDC" "variable" ( 25.0 ) PROP( )
END
