HEADER
"PSFversion" "1.00"
"V14v" "v14v"
"V12v" "v12v"
"V19v" "v19v"
"V13v" "v13v"
"V10v" "v10v"
"V17v" "v17v"
"V15v" "v15v"
"V18v" "v18v"
"V16v" "v16v"
"C9v" "c9v"
"V14n V12n V19n V13n V10n V17n V15n V18n V16n" "NCSU_Analog_Parts_vpulse_hspiceD"
"C8v" "c8v"
"C7v" "c7v"
"C6v" "c6v"
"C10v" "c10v"
"V11v" "v11v"
"C9n C8n C7n C6n C10n" "NCSU_Analog_Parts_cap_hspiceD"
"I30v" "xi30v"
"V11n" "NCSU_Analog_Parts_vdc_hspiceD"
"I30n" "CBA_4bit"
