HEADER
"PSFversion" "1.00"
"Co3_muxv" "co3_muxv"
"Sum3v" "sum3v"
"Sum2v" "sum2v"
"Sum1v" "sum1v"
"Sum0v" "sum0v"
"B0v" "b0v"
"B1v" "b1v"
"B2v" "b2v"
"B3v" "b3v"
"A0v" "a0v"
"A1v" "a1v"
"A2v" "a2v"
"A3v" "a3v"
"Cinv" "cinv"
"gnd!v" "0v"
