HEADER
"PSFversion" "1.00"
"Vddv" "vddv"
"Gv" "gv"
"Bv" "bv"
"Av" "av"
