HEADER
"PSFversion" "1.00"
"Sumv" "sumv"
"Vddv" "vddv"
"Pv" "pv"
"Cinv" "cinv"
