HEADER
"PSFversion" "1.00"
"In0v" "in0v"
"In1v" "in1v"
"Sv" "sv"
"Outv" "outv"
"gnd!v" "0v"
