HEADER
"PSFversion" "1.00"
"__NEXT_FILE__" "invMUX2_tb"
