HEADER
"PSFversion" "1.00"
"design" "(\"Project_416\" \"CBA_4bit\" \"schematic\" \"\")"
"simulator" "hspiceD"
"temperature" "25.0"
"host" ""
"date" "Nov  7 20:12:11 2016"
"title" ""
"analysisList" "()"
END
