HEADER
"PSFversion" "1.00"
"Outv" "outv"
"Av" "av"
"Bv" "bv"
"Cv" "cv"
"Dv" "dv"
"Ev" "ev"
"Vddv" "vddv"
"gnd!v" "0v"
