HEADER
"PSFversion" "1.00"
"N4v" "mn4v"
"N3v" "mn3v"
"N2v" "mn2v"
"N1v" "mn1v"
"N0v" "mn0v"
"P4v" "mp4v"
"N4n N3n N2n N1n N0n" "NCSU_Analog_Parts_nmos4_hspiceD"
"P3v" "mp3v"
"P2v" "mp2v"
"P1v" "mp1v"
"P0v" "mp0v"
"V9v" "v9v"
"P4n P3n P2n P1n P0n" "NCSU_Analog_Parts_pmos4_hspiceD"
"V8v" "v8v"
"V7v" "v7v"
"V6v" "v6v"
"V0v" "v0v"
"C0v" "c0v"
"V9n V8n V7n V6n V0n" "NCSU_Analog_Parts_vdc_hspiceD"
"V1v" "v1v"
"C0n" "NCSU_Analog_Parts_cap_hspiceD"
"V1n" "NCSU_Analog_Parts_vpulse_hspiceD"
