HEADER
"PSFversion" "1.00"
"__NEXT_FILE__" "Asst_6_1_f1"
