HEADER
"PSFversion" "1.00"
"Time Stamp" "Sep 15 01:01:42 2016"
TYPE
"variable" STRUCT(
"value" FLOAT DOUBLE
) PROP( "key" "element" )
VALUE
"vgs" "variable" ( 1.8 ) PROP( )
"vds" "variable" ( 50e-3 ) PROP( )
"TEMPDC" "variable" ( 25.0 ) PROP( )
END
