HEADER
"PSFversion" "1.00"
"+3v" "m0v"
"+2v" "m1v"
"+14v" "c2v"
"+3n +2n" "NCSU_Analog_Parts_pmos4_hspiceD"
"+13v" "c3v"
"+12v" "c4v"
"+11v" "c5v"
"+10v" "c6v"
"+9v" "c7v"
"+8v" "c8v"
"+7v" "c9v"
"+6v" "c10v"
"+5v" "c11v"
"+4v" "c12v"
"+1v" "m13v"
"+14n +13n +12n +11n +10n +9n +8n +7n +6n +5n +4n" "NCSU_Analog_Parts_pcapacitor_hspiceD"
"+0v" "m14v"
"+1n +0n" "NCSU_Analog_Parts_nmos4_hspiceD"
