HEADER
"PSFversion" "1.00"
"6v" "n6v"
"AnandBv" "anandbv"
"Bv" "bv"
"Av" "av"
"Vddv" "vddv"
