HEADER
"PSFversion" "1.00"
"S_barv" "s_barv"
"Fv" "fv"
"Sv" "sv"
"Av" "av"
"Bv" "bv"
"gnd!v" "0v"
