HEADER
"PSFversion" "1.00"
"P4v" "mp4v"
"P3v" "mp3v"
"P2v" "mp2v"
"P1v" "mp1v"
"P0v" "mp0v"
"N4v" "mn4v"
"P4n P3n P2n P1n P0n" "NCSU_Analog_Parts_pmos4_hspiceD"
"N3v" "mn3v"
"N2v" "mn2v"
"N1v" "mn1v"
"N0v" "mn0v"
"V2v" "v2v"
"N4n N3n N2n N1n N0n" "NCSU_Analog_Parts_nmos4_hspiceD"
"Vddv" "vddv"
"C0v" "c0v"
"V2n Vddn" "NCSU_Analog_Parts_vdc_hspiceD"
"V0v" "v0v"
"C0n" "NCSU_Analog_Parts_cap_hspiceD"
"V0n" "NCSU_Analog_Parts_vpulse_hspiceD"
