HEADER
"PSFversion" "1.00"
"__NEXT_FILE__" "Asst5_Q2"
