HEADER
"PSFversion" "1.00"
"Carryv" "carryv"
"Pv" "pv"
"P_barv" "p_barv"
"Vddv" "vddv"
"Gndv" "gndv"
"Gv" "gv"
"Cinv" "cinv"
"Cin_barv" "cin_barv"
"G_barv" "g_barv"
