HEADER
"PSFversion" "1.00"
"design" "(\"Project_416\" \"CBA_4bit\" \"schematic\" \"\")"
"simulator" "spectre"
"temperature" "27"
"host" ""
"date" "Nov  6 03:56:02 2016"
"title" ""
"analysisList" "()"
END
