HEADER
"PSFversion" "1.00"
"Time Stamp" "Nov  6 03:56:03 2016"
TYPE
"variable" STRUCT(
"value" FLOAT DOUBLE
) PROP( "key" "element" )
VALUE
"beta" "variable" ( 2 ) PROP( )
"temp" "variable" ( 27 ) PROP( )
END
