HEADER
"PSFversion" "1.00"
"Outv" "outv"
"Av" "av"
"Bv" "bv"
"Gndv" "gndv"
"Vddv" "vddv"
