HEADER
"PSFversion" "1.00"
"Vddv" "vddv"
"gnd!v" "0v"
