HEADER
"PSFversion" "1.00"
"6v" "n6v"
"Gndv" "gndv"
"Outv" "outv"
"Bv" "bv"
"Av" "av"
"Vddv" "vddv"
