HEADER
"PSFversion" "1.00"
"17v" "n17v"
"16v" "n16v"
"15v" "n15v"
"14v" "n14v"
"13v" "n13v"
"12v" "n12v"
"11v" "n11v"
"10v" "n10v"
"9v" "n9v"
"8v" "n8v"
"Gndv" "gndv"
"Pv" "pv"
"Gv" "gv"
"Sumv" "sumv"
"Cinv" "cinv"
"Vddv" "vddv"
"Carryv" "carryv"
