HEADER
"PSFversion" "1.00"
"Time Stamp" "Sep 14 18:18:26 2016"
TYPE
"variable" STRUCT(
"value" FLOAT DOUBLE
) PROP( "key" "element" )
VALUE
"TEMPDC" "variable" ( 25.0 ) PROP( )
END
