HEADER
"PSFversion" "1.00"
"design" "(\"Assignment2\" \"NAND2_tb\" \"schematic\" \"\")"
"simulator" "hspiceD"
"temperature" "25.0"
"host" ""
"date" "Nov 23 21:15:21 2016"
"title" ""
"analysisList" "()"
END
