HEADER
"PSFversion" "1.00"
"design" "(\"Assignment2\" \"q3_mux_sym_tb\" \"schematic\" \"\")"
"simulator" "hspiceD"
"temperature" "25.0"
"host" ""
"date" "Oct 17 23:26:19 2016"
"title" ""
"analysisList" "()"
END
