HEADER
"PSFversion" "1.00"
"Time Stamp" "Oct 17 23:26:19 2016"
TYPE
"variable" STRUCT(
"value" FLOAT DOUBLE
) PROP( "key" "element" )
VALUE
"beta" "variable" ( 1.764157 ) PROP( )
"TEMPDC" "variable" ( 25.0 ) PROP( )
END
