HEADER
"PSFversion" "1.00"
"design" "(\"Asst_6\" \"Asst_6_1_f1\" \"schematic\" \"\")"
"simulator" "hspiceD"
"temperature" "25.0"
"host" ""
"date" "Oct 18 20:22:27 2016"
"title" ""
"analysisList" "()"
END
