HEADER
"PSFversion" "1.00"
"Time Stamp" "Oct 18 20:22:27 2016"
TYPE
"variable" STRUCT(
"value" FLOAT DOUBLE
) PROP( "key" "element" )
VALUE
"Wp" "variable" ( 300e-9 ) PROP( )
"TEMPDC" "variable" ( 25.0 ) PROP( )
END
