HEADER
"PSFversion" "1.00"
"Prop1v" "prop1v"
"Prop3v" "prop3v"
"Prop0v" "prop0v"
"Vddv" "vddv"
"Prop2v" "prop2v"
