HEADER
"PSFversion" "1.00"
"B0v" "b0v"
"B1v" "b1v"
"B2v" "b2v"
"B3v" "b3v"
"B4v" "b4v"
"B5v" "b5v"
"B6v" "b6v"
"B7v" "b7v"
"B8v" "b8v"
"B9v" "b9v"
"B10v" "b10v"
"B11v" "b11v"
"B12v" "b12v"
"B13v" "b13v"
"B14v" "b14v"
"B15v" "b15v"
"A0v" "a0v"
"A1v" "a1v"
"A2v" "a2v"
"A3v" "a3v"
"A4v" "a4v"
"A5v" "a5v"
"A6v" "a6v"
"A7v" "a7v"
"A8v" "a8v"
"A9v" "a9v"
"A10v" "a10v"
"A11v" "a11v"
"A12v" "a12v"
"A13v" "a13v"
"A14v" "a14v"
"A15v" "a15v"
"S0v" "s0v"
"S1v" "s1v"
"S2v" "s2v"
"S3v" "s3v"
"S4v" "s4v"
"S5v" "s5v"
"S6v" "s6v"
"S7v" "s7v"
"S8v" "s8v"
"S9v" "s9v"
"S10v" "s10v"
"S11v" "s11v"
"S12v" "s12v"
"S13v" "s13v"
"S14v" "s14v"
"S15v" "s15v"
"Coutv" "coutv"
"Cinv" "cinv"
"gnd!v" "0v"
