HEADER
"PSFversion" "1.00"
"+384v" "m0v"
"+386v" "m1v"
"+399v" "m2v"
"+402v" "m3v"
"+410v" "m4v"
"+415v" "m5v"
"+417v" "m6v"
"+421v" "m7v"
"+435v" "m8v"
"+439v" "m9v"
"+442v" "m10v"
"+446v" "m11v"
"+513v" "m12v"
"+517v" "m13v"
"+520v" "m14v"
"+524v" "m15v"
"+538v" "m16v"
"+542v" "m17v"
"+544v" "m18v"
"+549v" "m19v"
"+557v" "m20v"
"+560v" "m21v"
"+573v" "m22v"
"+575v" "m23v"
"+576v" "m24v"
"+578v" "m25v"
"+592v" "m26v"
"+594v" "m27v"
"+602v" "m28v"
"+607v" "m29v"
"+609v" "m30v"
"+614v" "m31v"
"+627v" "m32v"
"+631v" "m33v"
"+634v" "m34v"
"+638v" "m35v"
"+705v" "m36v"
"+709v" "m37v"
"+712v" "m38v"
"+716v" "m39v"
"+730v" "m40v"
"+734v" "m41v"
"+736v" "m42v"
"+741v" "m43v"
"+749v" "m44v"
"+752v" "m45v"
"+765v" "m46v"
"+767v" "m47v"
"+3395v" "c48v"
"+384n +386n +399n +402n +410n +415n +417n +421n +435n +439n +442n +446n +513n +517n +520n +524n +538n +542n +544n +549n +557n +560n +573n +575n +576n +578n +592n +594n +602n +607n +609n +614n +627n +631n +634n +638n +705n +709n +712n +716n +730n +734n +736n +741n +749n +752n +765n +767n" "NCSU_Analog_Parts_pmos4_hspiceD"
"+3394v" "c49v"
"+3393v" "c50v"
"+3392v" "c51v"
"+3391v" "c52v"
"+3390v" "c53v"
"+3389v" "c54v"
"+3388v" "c55v"
"+3387v" "c56v"
"+3386v" "c57v"
"+3385v" "c58v"
"+3384v" "c59v"
"+3383v" "c60v"
"+3382v" "c61v"
"+3381v" "c62v"
"+3380v" "c63v"
"+3379v" "c64v"
"+3378v" "c65v"
"+3377v" "c66v"
"+3376v" "c67v"
"+3375v" "c68v"
"+3374v" "c69v"
"+3373v" "c70v"
"+3372v" "c71v"
"+3371v" "c72v"
"+3370v" "c73v"
"+3369v" "c74v"
"+3368v" "c75v"
"+3367v" "c76v"
"+3366v" "c77v"
"+3365v" "c78v"
"+3364v" "c79v"
"+3363v" "c80v"
"+3362v" "c81v"
"+3361v" "c82v"
"+3360v" "c83v"
"+3359v" "c84v"
"+3358v" "c85v"
"+3357v" "c86v"
"+3356v" "c87v"
"+3355v" "c88v"
"+3354v" "c89v"
"+3353v" "c90v"
"+3352v" "c91v"
"+3351v" "c92v"
"+3350v" "c93v"
"+3349v" "c94v"
"+3348v" "c95v"
"+3347v" "c96v"
"+3346v" "c97v"
"+3345v" "c98v"
"+3344v" "c99v"
"+3343v" "c100v"
"+3342v" "c101v"
"+3341v" "c102v"
"+3340v" "c103v"
"+3339v" "c104v"
"+3338v" "c105v"
"+3337v" "c106v"
"+3336v" "c107v"
"+3335v" "c108v"
"+3334v" "c109v"
"+3333v" "c110v"
"+3332v" "c111v"
"+3331v" "c112v"
"+3330v" "c113v"
"+3329v" "c114v"
"+3328v" "c115v"
"+3327v" "c116v"
"+3326v" "c117v"
"+3325v" "c118v"
"+3324v" "c119v"
"+3323v" "c120v"
"+3322v" "c121v"
"+3321v" "c122v"
"+3320v" "c123v"
"+3319v" "c124v"
"+3318v" "c125v"
"+3317v" "c126v"
"+3316v" "c127v"
"+3315v" "c128v"
"+3314v" "c129v"
"+3313v" "c130v"
"+3312v" "c131v"
"+3311v" "c132v"
"+3310v" "c133v"
"+3309v" "c134v"
"+3308v" "c135v"
"+3307v" "c136v"
"+3306v" "c137v"
"+3305v" "c138v"
"+3304v" "c139v"
"+3303v" "c140v"
"+3302v" "c141v"
"+3301v" "c142v"
"+3300v" "c143v"
"+3299v" "c144v"
"+3298v" "c145v"
"+3297v" "c146v"
"+3296v" "c147v"
"+3295v" "c148v"
"+3294v" "c149v"
"+3293v" "c150v"
"+3292v" "c151v"
"+3291v" "c152v"
"+3290v" "c153v"
"+3289v" "c154v"
"+3288v" "c155v"
"+3287v" "c156v"
"+3286v" "c157v"
"+3285v" "c158v"
"+3284v" "c159v"
"+3283v" "c160v"
"+3282v" "c161v"
"+3281v" "c162v"
"+3280v" "c163v"
"+3279v" "c164v"
"+3278v" "c165v"
"+3277v" "c166v"
"+3276v" "c167v"
"+3275v" "c168v"
"+3274v" "c169v"
"+3273v" "c170v"
"+3272v" "c171v"
"+3271v" "c172v"
"+3270v" "c173v"
"+3269v" "c174v"
"+3268v" "c175v"
"+3267v" "c176v"
"+3266v" "c177v"
"+3265v" "c178v"
"+3264v" "c179v"
"+3263v" "c180v"
"+3262v" "c181v"
"+3261v" "c182v"
"+3260v" "c183v"
"+3259v" "c184v"
"+3258v" "c185v"
"+3257v" "c186v"
"+3256v" "c187v"
"+3255v" "c188v"
"+3254v" "c189v"
"+3253v" "c190v"
"+3252v" "c191v"
"+3251v" "c192v"
"+3250v" "c193v"
"+3249v" "c194v"
"+3248v" "c195v"
"+3247v" "c196v"
"+3246v" "c197v"
"+3245v" "c198v"
"+3244v" "c199v"
"+3243v" "c200v"
"+3242v" "c201v"
"+3241v" "c202v"
"+3240v" "c203v"
"+3239v" "c204v"
"+3238v" "c205v"
"+3237v" "c206v"
"+3236v" "c207v"
"+3235v" "c208v"
"+3234v" "c209v"
"+3233v" "c210v"
"+3232v" "c211v"
"+3231v" "c212v"
"+3230v" "c213v"
"+3229v" "c214v"
"+3228v" "c215v"
"+3227v" "c216v"
"+3226v" "c217v"
"+3225v" "c218v"
"+3224v" "c219v"
"+3223v" "c220v"
"+3222v" "c221v"
"+3221v" "c222v"
"+3220v" "c223v"
"+3219v" "c224v"
"+3218v" "c225v"
"+3217v" "c226v"
"+3216v" "c227v"
"+3215v" "c228v"
"+3214v" "c229v"
"+3213v" "c230v"
"+3212v" "c231v"
"+3211v" "c232v"
"+3210v" "c233v"
"+3209v" "c234v"
"+3208v" "c235v"
"+3207v" "c236v"
"+3206v" "c237v"
"+3205v" "c238v"
"+3204v" "c239v"
"+3203v" "c240v"
"+3202v" "c241v"
"+3201v" "c242v"
"+3200v" "c243v"
"+3199v" "c244v"
"+3198v" "c245v"
"+3197v" "c246v"
"+3196v" "c247v"
"+3195v" "c248v"
"+3194v" "c249v"
"+3193v" "c250v"
"+3192v" "c251v"
"+3191v" "c252v"
"+3190v" "c253v"
"+3189v" "c254v"
"+3188v" "c255v"
"+3187v" "c256v"
"+3186v" "c257v"
"+3185v" "c258v"
"+3184v" "c259v"
"+3183v" "c260v"
"+3182v" "c261v"
"+3181v" "c262v"
"+3180v" "c263v"
"+3179v" "c264v"
"+3178v" "c265v"
"+3177v" "c266v"
"+3176v" "c267v"
"+3175v" "c268v"
"+3174v" "c269v"
"+3173v" "c270v"
"+3172v" "c271v"
"+3171v" "c272v"
"+3170v" "c273v"
"+3169v" "c274v"
"+3168v" "c275v"
"+3167v" "c276v"
"+3166v" "c277v"
"+3165v" "c278v"
"+3164v" "c279v"
"+3163v" "c280v"
"+3162v" "c281v"
"+3161v" "c282v"
"+3160v" "c283v"
"+3159v" "c284v"
"+3158v" "c285v"
"+3157v" "c286v"
"+3156v" "c287v"
"+3155v" "c288v"
"+3154v" "c289v"
"+3153v" "c290v"
"+3152v" "c291v"
"+3151v" "c292v"
"+3150v" "c293v"
"+3149v" "c294v"
"+3148v" "c295v"
"+3147v" "c296v"
"+3146v" "c297v"
"+3145v" "c298v"
"+3144v" "c299v"
"+3143v" "c300v"
"+3142v" "c301v"
"+3141v" "c302v"
"+3140v" "c303v"
"+3139v" "c304v"
"+3138v" "c305v"
"+3137v" "c306v"
"+3136v" "c307v"
"+3135v" "c308v"
"+3134v" "c309v"
"+3133v" "c310v"
"+3132v" "c311v"
"+3131v" "c312v"
"+3130v" "c313v"
"+3129v" "c314v"
"+3128v" "c315v"
"+3127v" "c316v"
"+3126v" "c317v"
"+3125v" "c318v"
"+3124v" "c319v"
"+3123v" "c320v"
"+3122v" "c321v"
"+3121v" "c322v"
"+3120v" "c323v"
"+3119v" "c324v"
"+3118v" "c325v"
"+3117v" "c326v"
"+3116v" "c327v"
"+3115v" "c328v"
"+3114v" "c329v"
"+3113v" "c330v"
"+3112v" "c331v"
"+3111v" "c332v"
"+3110v" "c333v"
"+3109v" "c334v"
"+3108v" "c335v"
"+3107v" "c336v"
"+3106v" "c337v"
"+3105v" "c338v"
"+3104v" "c339v"
"+3103v" "c340v"
"+3102v" "c341v"
"+3101v" "c342v"
"+3100v" "c343v"
"+3099v" "c344v"
"+3098v" "c345v"
"+3097v" "c346v"
"+3096v" "c347v"
"+3095v" "c348v"
"+3094v" "c349v"
"+3093v" "c350v"
"+3092v" "c351v"
"+3091v" "c352v"
"+3090v" "c353v"
"+3089v" "c354v"
"+3088v" "c355v"
"+3087v" "c356v"
"+3086v" "c357v"
"+3085v" "c358v"
"+3084v" "c359v"
"+3083v" "c360v"
"+3082v" "c361v"
"+3081v" "c362v"
"+3080v" "c363v"
"+3079v" "c364v"
"+3078v" "c365v"
"+3077v" "c366v"
"+3076v" "c367v"
"+3075v" "c368v"
"+3074v" "c369v"
"+3073v" "c370v"
"+3072v" "c371v"
"+3071v" "c372v"
"+3070v" "c373v"
"+3069v" "c374v"
"+3068v" "c375v"
"+3067v" "c376v"
"+3066v" "c377v"
"+3065v" "c378v"
"+3064v" "c379v"
"+3063v" "c380v"
"+3062v" "c381v"
"+3061v" "c382v"
"+3060v" "c383v"
"+3059v" "c384v"
"+3058v" "c385v"
"+3057v" "c386v"
"+3056v" "c387v"
"+3055v" "c388v"
"+3054v" "c389v"
"+3053v" "c390v"
"+3052v" "c391v"
"+3051v" "c392v"
"+3050v" "c393v"
"+3049v" "c394v"
"+3048v" "c395v"
"+3047v" "c396v"
"+3046v" "c397v"
"+3045v" "c398v"
"+3044v" "c399v"
"+3043v" "c400v"
"+3042v" "c401v"
"+3041v" "c402v"
"+3040v" "c403v"
"+3039v" "c404v"
"+3038v" "c405v"
"+3037v" "c406v"
"+3036v" "c407v"
"+3035v" "c408v"
"+3034v" "c409v"
"+3033v" "c410v"
"+3032v" "c411v"
"+3031v" "c412v"
"+3030v" "c413v"
"+3029v" "c414v"
"+3028v" "c415v"
"+3027v" "c416v"
"+3026v" "c417v"
"+3025v" "c418v"
"+3024v" "c419v"
"+3023v" "c420v"
"+3022v" "c421v"
"+3021v" "c422v"
"+3020v" "c423v"
"+3019v" "c424v"
"+3018v" "c425v"
"+3017v" "c426v"
"+3016v" "c427v"
"+3015v" "c428v"
"+3014v" "c429v"
"+3013v" "c430v"
"+3012v" "c431v"
"+3011v" "c432v"
"+3010v" "c433v"
"+3009v" "c434v"
"+3008v" "c435v"
"+3007v" "c436v"
"+3006v" "c437v"
"+3005v" "c438v"
"+3004v" "c439v"
"+3003v" "c440v"
"+3002v" "c441v"
"+3001v" "c442v"
"+3000v" "c443v"
"+2999v" "c444v"
"+2998v" "c445v"
"+2997v" "c446v"
"+2996v" "c447v"
"+2995v" "c448v"
"+2994v" "c449v"
"+2993v" "c450v"
"+2992v" "c451v"
"+2991v" "c452v"
"+2990v" "c453v"
"+2989v" "c454v"
"+2988v" "c455v"
"+2987v" "c456v"
"+2986v" "c457v"
"+2985v" "c458v"
"+2984v" "c459v"
"+2983v" "c460v"
"+2982v" "c461v"
"+2981v" "c462v"
"+2980v" "c463v"
"+2979v" "c464v"
"+2978v" "c465v"
"+2977v" "c466v"
"+2976v" "c467v"
"+2975v" "c468v"
"+2974v" "c469v"
"+2973v" "c470v"
"+2972v" "c471v"
"+2971v" "c472v"
"+2970v" "c473v"
"+2969v" "c474v"
"+2968v" "c475v"
"+2967v" "c476v"
"+2966v" "c477v"
"+2965v" "c478v"
"+2964v" "c479v"
"+2963v" "c480v"
"+2962v" "c481v"
"+2961v" "c482v"
"+2960v" "c483v"
"+2959v" "c484v"
"+2958v" "c485v"
"+2957v" "c486v"
"+2956v" "c487v"
"+2955v" "c488v"
"+2954v" "c489v"
"+2953v" "c490v"
"+2952v" "c491v"
"+2951v" "c492v"
"+2950v" "c493v"
"+2949v" "c494v"
"+2948v" "c495v"
"+2947v" "c496v"
"+2946v" "c497v"
"+2945v" "c498v"
"+2944v" "c499v"
"+2943v" "c500v"
"+2942v" "c501v"
"+2941v" "c502v"
"+2940v" "c503v"
"+2939v" "c504v"
"+2938v" "c505v"
"+2937v" "c506v"
"+2936v" "c507v"
"+2935v" "c508v"
"+2934v" "c509v"
"+2933v" "c510v"
"+2932v" "c511v"
"+2931v" "c512v"
"+2930v" "c513v"
"+2929v" "c514v"
"+2928v" "c515v"
"+2927v" "c516v"
"+2926v" "c517v"
"+2925v" "c518v"
"+2924v" "c519v"
"+2923v" "c520v"
"+2922v" "c521v"
"+2921v" "c522v"
"+2920v" "c523v"
"+2919v" "c524v"
"+2918v" "c525v"
"+2917v" "c526v"
"+2916v" "c527v"
"+2915v" "c528v"
"+2914v" "c529v"
"+2913v" "c530v"
"+2912v" "c531v"
"+2911v" "c532v"
"+2910v" "c533v"
"+2909v" "c534v"
"+2908v" "c535v"
"+2907v" "c536v"
"+2906v" "c537v"
"+2905v" "c538v"
"+2904v" "c539v"
"+2903v" "c540v"
"+2902v" "c541v"
"+2901v" "c542v"
"+2900v" "c543v"
"+2899v" "c544v"
"+2898v" "c545v"
"+2897v" "c546v"
"+2896v" "c547v"
"+2895v" "c548v"
"+2894v" "c549v"
"+2893v" "c550v"
"+2892v" "c551v"
"+2891v" "c552v"
"+2890v" "c553v"
"+2889v" "c554v"
"+2888v" "c555v"
"+2887v" "c556v"
"+2886v" "c557v"
"+2885v" "c558v"
"+2884v" "c559v"
"+2883v" "c560v"
"+2882v" "c561v"
"+2881v" "c562v"
"+2880v" "c563v"
"+2879v" "c564v"
"+2878v" "c565v"
"+2877v" "c566v"
"+2876v" "c567v"
"+2875v" "c568v"
"+2874v" "c569v"
"+2873v" "c570v"
"+2872v" "c571v"
"+2871v" "c572v"
"+2870v" "c573v"
"+2869v" "c574v"
"+2868v" "c575v"
"+2867v" "c576v"
"+2866v" "c577v"
"+2865v" "c578v"
"+2864v" "c579v"
"+2863v" "c580v"
"+2862v" "c581v"
"+2861v" "c582v"
"+2860v" "c583v"
"+2859v" "c584v"
"+2858v" "c585v"
"+2857v" "c586v"
"+2856v" "c587v"
"+2855v" "c588v"
"+2854v" "c589v"
"+2853v" "c590v"
"+2852v" "c591v"
"+2851v" "c592v"
"+2850v" "c593v"
"+2849v" "c594v"
"+2848v" "c595v"
"+2847v" "c596v"
"+2846v" "c597v"
"+2845v" "c598v"
"+2844v" "c599v"
"+2843v" "c600v"
"+2842v" "c601v"
"+2841v" "c602v"
"+2840v" "c603v"
"+2839v" "c604v"
"+2838v" "c605v"
"+2837v" "c606v"
"+2836v" "c607v"
"+2835v" "c608v"
"+2834v" "c609v"
"+2833v" "c610v"
"+2832v" "c611v"
"+2831v" "c612v"
"+2830v" "c613v"
"+2829v" "c614v"
"+2828v" "c615v"
"+2827v" "c616v"
"+2826v" "c617v"
"+2825v" "c618v"
"+2824v" "c619v"
"+2823v" "c620v"
"+2822v" "c621v"
"+2821v" "c622v"
"+2820v" "c623v"
"+2819v" "c624v"
"+2818v" "c625v"
"+2817v" "c626v"
"+2816v" "c627v"
"+2815v" "c628v"
"+2814v" "c629v"
"+2813v" "c630v"
"+2812v" "c631v"
"+2811v" "c632v"
"+2810v" "c633v"
"+2809v" "c634v"
"+2808v" "c635v"
"+2807v" "c636v"
"+2806v" "c637v"
"+2805v" "c638v"
"+2804v" "c639v"
"+2803v" "c640v"
"+2802v" "c641v"
"+2801v" "c642v"
"+2800v" "c643v"
"+2799v" "c644v"
"+2798v" "c645v"
"+2797v" "c646v"
"+2796v" "c647v"
"+2795v" "c648v"
"+2794v" "c649v"
"+2793v" "c650v"
"+2792v" "c651v"
"+2791v" "c652v"
"+2790v" "c653v"
"+2789v" "c654v"
"+2788v" "c655v"
"+2787v" "c656v"
"+2786v" "c657v"
"+2785v" "c658v"
"+2784v" "c659v"
"+2783v" "c660v"
"+2782v" "c661v"
"+2781v" "c662v"
"+2780v" "c663v"
"+2779v" "c664v"
"+2778v" "c665v"
"+2777v" "c666v"
"+2776v" "c667v"
"+2775v" "c668v"
"+2774v" "c669v"
"+2773v" "c670v"
"+2772v" "c671v"
"+2771v" "c672v"
"+2770v" "c673v"
"+2769v" "c674v"
"+2768v" "c675v"
"+2767v" "c676v"
"+2766v" "c677v"
"+2765v" "c678v"
"+2764v" "c679v"
"+2763v" "c680v"
"+2762v" "c681v"
"+2761v" "c682v"
"+2760v" "c683v"
"+2759v" "c684v"
"+2758v" "c685v"
"+2757v" "c686v"
"+2756v" "c687v"
"+2755v" "c688v"
"+2754v" "c689v"
"+2753v" "c690v"
"+2752v" "c691v"
"+2751v" "c692v"
"+2750v" "c693v"
"+2749v" "c694v"
"+2748v" "c695v"
"+2747v" "c696v"
"+2746v" "c697v"
"+2745v" "c698v"
"+2744v" "c699v"
"+2743v" "c700v"
"+2742v" "c701v"
"+2741v" "c702v"
"+2740v" "c703v"
"+2739v" "c704v"
"+2738v" "c705v"
"+2737v" "c706v"
"+2736v" "c707v"
"+2735v" "c708v"
"+2734v" "c709v"
"+2733v" "c710v"
"+2732v" "c711v"
"+2731v" "c712v"
"+2730v" "c713v"
"+2729v" "c714v"
"+2728v" "c715v"
"+2727v" "c716v"
"+2726v" "c717v"
"+2725v" "c718v"
"+2724v" "c719v"
"+2723v" "c720v"
"+2722v" "c721v"
"+2721v" "c722v"
"+2720v" "c723v"
"+2719v" "c724v"
"+2718v" "c725v"
"+2717v" "c726v"
"+2716v" "c727v"
"+2715v" "c728v"
"+2714v" "c729v"
"+2713v" "c730v"
"+2712v" "c731v"
"+2711v" "c732v"
"+2710v" "c733v"
"+2709v" "c734v"
"+2708v" "c735v"
"+2707v" "c736v"
"+2706v" "c737v"
"+2705v" "c738v"
"+2704v" "c739v"
"+2703v" "c740v"
"+2702v" "c741v"
"+2701v" "c742v"
"+2700v" "c743v"
"+2699v" "c744v"
"+2698v" "c745v"
"+2697v" "c746v"
"+2696v" "c747v"
"+2695v" "c748v"
"+2694v" "c749v"
"+2693v" "c750v"
"+2692v" "c751v"
"+2691v" "c752v"
"+2690v" "c753v"
"+2689v" "c754v"
"+2688v" "c755v"
"+2687v" "c756v"
"+2686v" "c757v"
"+2685v" "c758v"
"+2684v" "c759v"
"+2683v" "c760v"
"+2682v" "c761v"
"+2681v" "c762v"
"+2680v" "c763v"
"+2679v" "c764v"
"+2678v" "c765v"
"+2677v" "c766v"
"+2676v" "c767v"
"+2675v" "c768v"
"+2674v" "c769v"
"+2673v" "c770v"
"+2672v" "c771v"
"+2671v" "c772v"
"+2670v" "c773v"
"+2669v" "c774v"
"+2668v" "c775v"
"+2667v" "c776v"
"+2666v" "c777v"
"+2665v" "c778v"
"+2664v" "c779v"
"+2663v" "c780v"
"+2662v" "c781v"
"+2661v" "c782v"
"+2660v" "c783v"
"+2659v" "c784v"
"+2658v" "c785v"
"+2657v" "c786v"
"+2656v" "c787v"
"+2655v" "c788v"
"+2654v" "c789v"
"+2653v" "c790v"
"+2652v" "c791v"
"+2651v" "c792v"
"+2650v" "c793v"
"+2649v" "c794v"
"+2648v" "c795v"
"+2647v" "c796v"
"+2646v" "c797v"
"+2645v" "c798v"
"+2644v" "c799v"
"+2643v" "c800v"
"+2642v" "c801v"
"+2641v" "c802v"
"+2640v" "c803v"
"+2639v" "c804v"
"+2638v" "c805v"
"+2637v" "c806v"
"+2636v" "c807v"
"+2635v" "c808v"
"+2634v" "c809v"
"+2633v" "c810v"
"+2632v" "c811v"
"+2631v" "c812v"
"+2630v" "c813v"
"+2629v" "c814v"
"+2628v" "c815v"
"+2627v" "c816v"
"+2626v" "c817v"
"+2625v" "c818v"
"+2624v" "c819v"
"+2623v" "c820v"
"+2622v" "c821v"
"+2621v" "c822v"
"+2620v" "c823v"
"+2619v" "c824v"
"+2618v" "c825v"
"+2617v" "c826v"
"+2616v" "c827v"
"+2615v" "c828v"
"+2614v" "c829v"
"+2613v" "c830v"
"+2612v" "c831v"
"+2611v" "c832v"
"+2610v" "c833v"
"+2609v" "c834v"
"+2608v" "c835v"
"+2607v" "c836v"
"+2606v" "c837v"
"+2605v" "c838v"
"+2604v" "c839v"
"+2603v" "c840v"
"+2602v" "c841v"
"+2601v" "c842v"
"+2600v" "c843v"
"+2599v" "c844v"
"+2598v" "c845v"
"+2597v" "c846v"
"+2596v" "c847v"
"+2595v" "c848v"
"+2594v" "c849v"
"+2593v" "c850v"
"+2592v" "c851v"
"+2591v" "c852v"
"+2590v" "c853v"
"+2589v" "c854v"
"+2588v" "c855v"
"+2587v" "c856v"
"+2586v" "c857v"
"+2585v" "c858v"
"+2584v" "c859v"
"+2583v" "c860v"
"+2582v" "c861v"
"+2581v" "c862v"
"+2580v" "c863v"
"+2579v" "c864v"
"+2578v" "c865v"
"+2577v" "c866v"
"+2576v" "c867v"
"+2575v" "c868v"
"+2574v" "c869v"
"+2573v" "c870v"
"+2572v" "c871v"
"+2571v" "c872v"
"+2570v" "c873v"
"+2569v" "c874v"
"+2568v" "c875v"
"+2567v" "c876v"
"+2566v" "c877v"
"+2565v" "c878v"
"+2564v" "c879v"
"+2563v" "c880v"
"+2562v" "c881v"
"+2561v" "c882v"
"+2560v" "c883v"
"+2559v" "c884v"
"+2558v" "c885v"
"+2557v" "c886v"
"+2556v" "c887v"
"+2555v" "c888v"
"+2554v" "c889v"
"+2553v" "c890v"
"+2552v" "c891v"
"+2551v" "c892v"
"+2550v" "c893v"
"+2549v" "c894v"
"+2548v" "c895v"
"+2547v" "c896v"
"+2546v" "c897v"
"+2545v" "c898v"
"+2544v" "c899v"
"+2543v" "c900v"
"+2542v" "c901v"
"+2541v" "c902v"
"+2540v" "c903v"
"+2539v" "c904v"
"+2538v" "c905v"
"+2537v" "c906v"
"+2536v" "c907v"
"+2535v" "c908v"
"+2534v" "c909v"
"+2533v" "c910v"
"+2532v" "c911v"
"+2531v" "c912v"
"+2530v" "c913v"
"+2529v" "c914v"
"+2528v" "c915v"
"+2527v" "c916v"
"+2526v" "c917v"
"+2525v" "c918v"
"+2524v" "c919v"
"+2523v" "c920v"
"+2522v" "c921v"
"+2521v" "c922v"
"+2520v" "c923v"
"+2519v" "c924v"
"+2518v" "c925v"
"+2517v" "c926v"
"+2516v" "c927v"
"+2515v" "c928v"
"+2514v" "c929v"
"+2513v" "c930v"
"+2512v" "c931v"
"+2511v" "c932v"
"+2510v" "c933v"
"+2509v" "c934v"
"+2508v" "c935v"
"+2507v" "c936v"
"+2506v" "c937v"
"+2505v" "c938v"
"+2504v" "c939v"
"+2503v" "c940v"
"+2502v" "c941v"
"+2501v" "c942v"
"+2500v" "c943v"
"+2499v" "c944v"
"+2498v" "c945v"
"+2497v" "c946v"
"+2496v" "c947v"
"+2495v" "c948v"
"+2494v" "c949v"
"+2493v" "c950v"
"+2492v" "c951v"
"+2491v" "c952v"
"+2490v" "c953v"
"+2489v" "c954v"
"+2488v" "c955v"
"+2487v" "c956v"
"+2486v" "c957v"
"+2485v" "c958v"
"+2484v" "c959v"
"+2483v" "c960v"
"+2482v" "c961v"
"+2481v" "c962v"
"+2480v" "c963v"
"+2479v" "c964v"
"+2478v" "c965v"
"+2477v" "c966v"
"+2476v" "c967v"
"+2475v" "c968v"
"+2474v" "c969v"
"+2473v" "c970v"
"+2472v" "c971v"
"+2471v" "c972v"
"+2470v" "c973v"
"+2469v" "c974v"
"+2468v" "c975v"
"+2467v" "c976v"
"+2466v" "c977v"
"+2465v" "c978v"
"+2464v" "c979v"
"+2463v" "c980v"
"+2462v" "c981v"
"+2461v" "c982v"
"+2460v" "c983v"
"+2459v" "c984v"
"+2458v" "c985v"
"+2457v" "c986v"
"+2456v" "c987v"
"+2455v" "c988v"
"+2454v" "c989v"
"+2453v" "c990v"
"+2452v" "c991v"
"+2451v" "c992v"
"+2450v" "c993v"
"+2449v" "c994v"
"+2448v" "c995v"
"+2447v" "c996v"
"+2446v" "c997v"
"+2445v" "c998v"
"+2444v" "c999v"
"+2443v" "c1000v"
"+2442v" "c1001v"
"+2441v" "c1002v"
"+2440v" "c1003v"
"+2439v" "c1004v"
"+2438v" "c1005v"
"+2437v" "c1006v"
"+2436v" "c1007v"
"+2435v" "c1008v"
"+2434v" "c1009v"
"+2433v" "c1010v"
"+2432v" "c1011v"
"+2431v" "c1012v"
"+2430v" "c1013v"
"+2429v" "c1014v"
"+2428v" "c1015v"
"+2427v" "c1016v"
"+2426v" "c1017v"
"+2425v" "c1018v"
"+2424v" "c1019v"
"+2423v" "c1020v"
"+2422v" "c1021v"
"+2421v" "c1022v"
"+2420v" "c1023v"
"+2419v" "c1024v"
"+2418v" "c1025v"
"+2417v" "c1026v"
"+2416v" "c1027v"
"+2415v" "c1028v"
"+2414v" "c1029v"
"+2413v" "c1030v"
"+2412v" "c1031v"
"+2411v" "c1032v"
"+2410v" "c1033v"
"+2409v" "c1034v"
"+2408v" "c1035v"
"+2407v" "c1036v"
"+2406v" "c1037v"
"+2405v" "c1038v"
"+2404v" "c1039v"
"+2403v" "c1040v"
"+2402v" "c1041v"
"+2401v" "c1042v"
"+2400v" "c1043v"
"+2399v" "c1044v"
"+2398v" "c1045v"
"+2397v" "c1046v"
"+2396v" "c1047v"
"+2395v" "c1048v"
"+2394v" "c1049v"
"+2393v" "c1050v"
"+2392v" "c1051v"
"+2391v" "c1052v"
"+2390v" "c1053v"
"+2389v" "c1054v"
"+2388v" "c1055v"
"+2387v" "c1056v"
"+2386v" "c1057v"
"+2385v" "c1058v"
"+2384v" "c1059v"
"+2383v" "c1060v"
"+2382v" "c1061v"
"+2381v" "c1062v"
"+2380v" "c1063v"
"+2379v" "c1064v"
"+2378v" "c1065v"
"+2377v" "c1066v"
"+2376v" "c1067v"
"+2375v" "c1068v"
"+2374v" "c1069v"
"+2373v" "c1070v"
"+2372v" "c1071v"
"+2371v" "c1072v"
"+2370v" "c1073v"
"+2369v" "c1074v"
"+2368v" "c1075v"
"+2367v" "c1076v"
"+2366v" "c1077v"
"+2365v" "c1078v"
"+2364v" "c1079v"
"+2363v" "c1080v"
"+2362v" "c1081v"
"+2361v" "c1082v"
"+2360v" "c1083v"
"+2359v" "c1084v"
"+2358v" "c1085v"
"+2357v" "c1086v"
"+2356v" "c1087v"
"+2355v" "c1088v"
"+2354v" "c1089v"
"+2353v" "c1090v"
"+2352v" "c1091v"
"+2351v" "c1092v"
"+2350v" "c1093v"
"+2349v" "c1094v"
"+2348v" "c1095v"
"+2347v" "c1096v"
"+2346v" "c1097v"
"+2345v" "c1098v"
"+2344v" "c1099v"
"+2343v" "c1100v"
"+2342v" "c1101v"
"+2341v" "c1102v"
"+2340v" "c1103v"
"+2339v" "c1104v"
"+2338v" "c1105v"
"+2337v" "c1106v"
"+2336v" "c1107v"
"+2335v" "c1108v"
"+2334v" "c1109v"
"+2333v" "c1110v"
"+2332v" "c1111v"
"+2331v" "c1112v"
"+2330v" "c1113v"
"+2329v" "c1114v"
"+2328v" "c1115v"
"+2327v" "c1116v"
"+2326v" "c1117v"
"+2325v" "c1118v"
"+2324v" "c1119v"
"+2323v" "c1120v"
"+2322v" "c1121v"
"+2321v" "c1122v"
"+2320v" "c1123v"
"+2319v" "c1124v"
"+2318v" "c1125v"
"+2317v" "c1126v"
"+2316v" "c1127v"
"+2315v" "c1128v"
"+2314v" "c1129v"
"+2313v" "c1130v"
"+2312v" "c1131v"
"+2311v" "c1132v"
"+2310v" "c1133v"
"+2309v" "c1134v"
"+2308v" "c1135v"
"+2307v" "c1136v"
"+2306v" "c1137v"
"+2305v" "c1138v"
"+2304v" "c1139v"
"+2303v" "c1140v"
"+2302v" "c1141v"
"+2301v" "c1142v"
"+2300v" "c1143v"
"+2299v" "c1144v"
"+2298v" "c1145v"
"+2297v" "c1146v"
"+2296v" "c1147v"
"+2295v" "c1148v"
"+2294v" "c1149v"
"+2293v" "c1150v"
"+2292v" "c1151v"
"+2291v" "c1152v"
"+2290v" "c1153v"
"+2289v" "c1154v"
"+2288v" "c1155v"
"+2287v" "c1156v"
"+2286v" "c1157v"
"+2285v" "c1158v"
"+2284v" "c1159v"
"+2283v" "c1160v"
"+2282v" "c1161v"
"+2281v" "c1162v"
"+2280v" "c1163v"
"+2279v" "c1164v"
"+2278v" "c1165v"
"+2277v" "c1166v"
"+2276v" "c1167v"
"+2275v" "c1168v"
"+2274v" "c1169v"
"+2273v" "c1170v"
"+2272v" "c1171v"
"+2271v" "c1172v"
"+2270v" "c1173v"
"+2269v" "c1174v"
"+2268v" "c1175v"
"+2267v" "c1176v"
"+2266v" "c1177v"
"+2265v" "c1178v"
"+2264v" "c1179v"
"+2263v" "c1180v"
"+2262v" "c1181v"
"+2261v" "c1182v"
"+2260v" "c1183v"
"+2259v" "c1184v"
"+2258v" "c1185v"
"+2257v" "c1186v"
"+2256v" "c1187v"
"+2255v" "c1188v"
"+2254v" "c1189v"
"+2253v" "c1190v"
"+2252v" "c1191v"
"+2251v" "c1192v"
"+2250v" "c1193v"
"+2249v" "c1194v"
"+2248v" "c1195v"
"+2247v" "c1196v"
"+2246v" "c1197v"
"+2245v" "c1198v"
"+2244v" "c1199v"
"+2243v" "c1200v"
"+2242v" "c1201v"
"+2241v" "c1202v"
"+2240v" "c1203v"
"+2239v" "c1204v"
"+2238v" "c1205v"
"+2237v" "c1206v"
"+2236v" "c1207v"
"+2235v" "c1208v"
"+2234v" "c1209v"
"+2233v" "c1210v"
"+2232v" "c1211v"
"+2231v" "c1212v"
"+2230v" "c1213v"
"+2229v" "c1214v"
"+2228v" "c1215v"
"+2227v" "c1216v"
"+2226v" "c1217v"
"+2225v" "c1218v"
"+2224v" "c1219v"
"+2223v" "c1220v"
"+2222v" "c1221v"
"+2221v" "c1222v"
"+2220v" "c1223v"
"+2219v" "c1224v"
"+2218v" "c1225v"
"+2217v" "c1226v"
"+2216v" "c1227v"
"+2215v" "c1228v"
"+2214v" "c1229v"
"+2213v" "c1230v"
"+2212v" "c1231v"
"+2211v" "c1232v"
"+2210v" "c1233v"
"+2209v" "c1234v"
"+2208v" "c1235v"
"+2207v" "c1236v"
"+2206v" "c1237v"
"+2205v" "c1238v"
"+2204v" "c1239v"
"+2203v" "c1240v"
"+2202v" "c1241v"
"+2201v" "c1242v"
"+2200v" "c1243v"
"+2199v" "c1244v"
"+2198v" "c1245v"
"+2197v" "c1246v"
"+2196v" "c1247v"
"+2195v" "c1248v"
"+2194v" "c1249v"
"+2193v" "c1250v"
"+2192v" "c1251v"
"+2191v" "c1252v"
"+2190v" "c1253v"
"+2189v" "c1254v"
"+2188v" "c1255v"
"+2187v" "c1256v"
"+2186v" "c1257v"
"+2185v" "c1258v"
"+2184v" "c1259v"
"+2183v" "c1260v"
"+2182v" "c1261v"
"+2181v" "c1262v"
"+2180v" "c1263v"
"+2179v" "c1264v"
"+2178v" "c1265v"
"+2177v" "c1266v"
"+2176v" "c1267v"
"+2175v" "c1268v"
"+2174v" "c1269v"
"+2173v" "c1270v"
"+2172v" "c1271v"
"+2171v" "c1272v"
"+2170v" "c1273v"
"+2169v" "c1274v"
"+2168v" "c1275v"
"+2167v" "c1276v"
"+2166v" "c1277v"
"+2165v" "c1278v"
"+2164v" "c1279v"
"+2163v" "c1280v"
"+2162v" "c1281v"
"+2161v" "c1282v"
"+2160v" "c1283v"
"+2159v" "c1284v"
"+2158v" "c1285v"
"+2157v" "c1286v"
"+2156v" "c1287v"
"+2155v" "c1288v"
"+2154v" "c1289v"
"+2153v" "c1290v"
"+2152v" "c1291v"
"+2151v" "c1292v"
"+2150v" "c1293v"
"+2149v" "c1294v"
"+2148v" "c1295v"
"+2147v" "c1296v"
"+2146v" "c1297v"
"+2145v" "c1298v"
"+2144v" "c1299v"
"+2143v" "c1300v"
"+2142v" "c1301v"
"+2141v" "c1302v"
"+2140v" "c1303v"
"+2139v" "c1304v"
"+2138v" "c1305v"
"+2137v" "c1306v"
"+2136v" "c1307v"
"+2135v" "c1308v"
"+2134v" "c1309v"
"+2133v" "c1310v"
"+2132v" "c1311v"
"+2131v" "c1312v"
"+2130v" "c1313v"
"+2129v" "c1314v"
"+2128v" "c1315v"
"+2127v" "c1316v"
"+2126v" "c1317v"
"+2125v" "c1318v"
"+2124v" "c1319v"
"+2123v" "c1320v"
"+2122v" "c1321v"
"+2121v" "c1322v"
"+2120v" "c1323v"
"+2119v" "c1324v"
"+2118v" "c1325v"
"+2117v" "c1326v"
"+2116v" "c1327v"
"+2115v" "c1328v"
"+2114v" "c1329v"
"+2113v" "c1330v"
"+2112v" "c1331v"
"+2111v" "c1332v"
"+2110v" "c1333v"
"+2109v" "c1334v"
"+2108v" "c1335v"
"+2107v" "c1336v"
"+2106v" "c1337v"
"+2105v" "c1338v"
"+2104v" "c1339v"
"+2103v" "c1340v"
"+2102v" "c1341v"
"+2101v" "c1342v"
"+2100v" "c1343v"
"+2099v" "c1344v"
"+2098v" "c1345v"
"+2097v" "c1346v"
"+2096v" "c1347v"
"+2095v" "c1348v"
"+2094v" "c1349v"
"+2093v" "c1350v"
"+2092v" "c1351v"
"+2091v" "c1352v"
"+2090v" "c1353v"
"+2089v" "c1354v"
"+2088v" "c1355v"
"+2087v" "c1356v"
"+2086v" "c1357v"
"+2085v" "c1358v"
"+2084v" "c1359v"
"+2083v" "c1360v"
"+2082v" "c1361v"
"+2081v" "c1362v"
"+2080v" "c1363v"
"+2079v" "c1364v"
"+2078v" "c1365v"
"+2077v" "c1366v"
"+2076v" "c1367v"
"+2075v" "c1368v"
"+2074v" "c1369v"
"+2073v" "c1370v"
"+2072v" "c1371v"
"+2071v" "c1372v"
"+2070v" "c1373v"
"+2069v" "c1374v"
"+2068v" "c1375v"
"+2067v" "c1376v"
"+2066v" "c1377v"
"+2065v" "c1378v"
"+2064v" "c1379v"
"+2063v" "c1380v"
"+2062v" "c1381v"
"+2061v" "c1382v"
"+2060v" "c1383v"
"+2059v" "c1384v"
"+2058v" "c1385v"
"+2057v" "c1386v"
"+2056v" "c1387v"
"+2055v" "c1388v"
"+2054v" "c1389v"
"+2053v" "c1390v"
"+2052v" "c1391v"
"+2051v" "c1392v"
"+2050v" "c1393v"
"+2049v" "c1394v"
"+2048v" "c1395v"
"+2047v" "c1396v"
"+2046v" "c1397v"
"+2045v" "c1398v"
"+2044v" "c1399v"
"+2043v" "c1400v"
"+2042v" "c1401v"
"+2041v" "c1402v"
"+2040v" "c1403v"
"+2039v" "c1404v"
"+2038v" "c1405v"
"+2037v" "c1406v"
"+2036v" "c1407v"
"+2035v" "c1408v"
"+2034v" "c1409v"
"+2033v" "c1410v"
"+2032v" "c1411v"
"+2031v" "c1412v"
"+2030v" "c1413v"
"+2029v" "c1414v"
"+2028v" "c1415v"
"+2027v" "c1416v"
"+2026v" "c1417v"
"+2025v" "c1418v"
"+2024v" "c1419v"
"+2023v" "c1420v"
"+2022v" "c1421v"
"+2021v" "c1422v"
"+2020v" "c1423v"
"+2019v" "c1424v"
"+2018v" "c1425v"
"+2017v" "c1426v"
"+2016v" "c1427v"
"+2015v" "c1428v"
"+2014v" "c1429v"
"+2013v" "c1430v"
"+2012v" "c1431v"
"+2011v" "c1432v"
"+2010v" "c1433v"
"+2009v" "c1434v"
"+2008v" "c1435v"
"+2007v" "c1436v"
"+2006v" "c1437v"
"+2005v" "c1438v"
"+2004v" "c1439v"
"+2003v" "c1440v"
"+2002v" "c1441v"
"+2001v" "c1442v"
"+2000v" "c1443v"
"+1999v" "c1444v"
"+1998v" "c1445v"
"+1997v" "c1446v"
"+1996v" "c1447v"
"+1995v" "c1448v"
"+1994v" "c1449v"
"+1993v" "c1450v"
"+1992v" "c1451v"
"+1991v" "c1452v"
"+1990v" "c1453v"
"+1989v" "c1454v"
"+1988v" "c1455v"
"+1987v" "c1456v"
"+1986v" "c1457v"
"+1985v" "c1458v"
"+1984v" "c1459v"
"+1983v" "c1460v"
"+1982v" "c1461v"
"+1981v" "c1462v"
"+1980v" "c1463v"
"+1979v" "c1464v"
"+1978v" "c1465v"
"+1977v" "c1466v"
"+1976v" "c1467v"
"+1975v" "c1468v"
"+1974v" "c1469v"
"+1973v" "c1470v"
"+1972v" "c1471v"
"+1971v" "c1472v"
"+1970v" "c1473v"
"+1969v" "c1474v"
"+1968v" "c1475v"
"+1967v" "c1476v"
"+1966v" "c1477v"
"+1965v" "c1478v"
"+1964v" "c1479v"
"+1963v" "c1480v"
"+1962v" "c1481v"
"+1961v" "c1482v"
"+1960v" "c1483v"
"+1959v" "c1484v"
"+1958v" "c1485v"
"+1957v" "c1486v"
"+1956v" "c1487v"
"+1955v" "c1488v"
"+1954v" "c1489v"
"+1953v" "c1490v"
"+1952v" "c1491v"
"+1951v" "c1492v"
"+1950v" "c1493v"
"+1949v" "c1494v"
"+1948v" "c1495v"
"+1947v" "c1496v"
"+1946v" "c1497v"
"+1945v" "c1498v"
"+1944v" "c1499v"
"+1943v" "c1500v"
"+1942v" "c1501v"
"+1941v" "c1502v"
"+1940v" "c1503v"
"+1939v" "c1504v"
"+1938v" "c1505v"
"+1937v" "c1506v"
"+1936v" "c1507v"
"+1935v" "c1508v"
"+1934v" "c1509v"
"+1933v" "c1510v"
"+1932v" "c1511v"
"+1931v" "c1512v"
"+1930v" "c1513v"
"+1929v" "c1514v"
"+1928v" "c1515v"
"+1927v" "c1516v"
"+1926v" "c1517v"
"+1925v" "c1518v"
"+1924v" "c1519v"
"+1923v" "c1520v"
"+1922v" "c1521v"
"+1921v" "c1522v"
"+1920v" "c1523v"
"+1919v" "c1524v"
"+1918v" "c1525v"
"+1917v" "c1526v"
"+1916v" "c1527v"
"+1915v" "c1528v"
"+1914v" "c1529v"
"+1913v" "c1530v"
"+1912v" "c1531v"
"+1911v" "c1532v"
"+1910v" "c1533v"
"+1909v" "c1534v"
"+1908v" "c1535v"
"+1907v" "c1536v"
"+1906v" "c1537v"
"+1905v" "c1538v"
"+1904v" "c1539v"
"+1903v" "c1540v"
"+1902v" "c1541v"
"+1901v" "c1542v"
"+1900v" "c1543v"
"+1899v" "c1544v"
"+1898v" "c1545v"
"+1897v" "c1546v"
"+1896v" "c1547v"
"+1895v" "c1548v"
"+1894v" "c1549v"
"+1893v" "c1550v"
"+1892v" "c1551v"
"+1891v" "c1552v"
"+1890v" "c1553v"
"+1889v" "c1554v"
"+1888v" "c1555v"
"+1887v" "c1556v"
"+1886v" "c1557v"
"+1885v" "c1558v"
"+1884v" "c1559v"
"+1883v" "c1560v"
"+1882v" "c1561v"
"+1881v" "c1562v"
"+1880v" "c1563v"
"+1879v" "c1564v"
"+1878v" "c1565v"
"+1877v" "c1566v"
"+1876v" "c1567v"
"+1875v" "c1568v"
"+1874v" "c1569v"
"+1873v" "c1570v"
"+1872v" "c1571v"
"+1871v" "c1572v"
"+1870v" "c1573v"
"+1869v" "c1574v"
"+1868v" "c1575v"
"+1867v" "c1576v"
"+1866v" "c1577v"
"+1865v" "c1578v"
"+1864v" "c1579v"
"+1863v" "c1580v"
"+1862v" "c1581v"
"+1861v" "c1582v"
"+1860v" "c1583v"
"+1859v" "c1584v"
"+1858v" "c1585v"
"+1857v" "c1586v"
"+1856v" "c1587v"
"+1855v" "c1588v"
"+1854v" "c1589v"
"+1853v" "c1590v"
"+1852v" "c1591v"
"+1851v" "c1592v"
"+1850v" "c1593v"
"+1849v" "c1594v"
"+1848v" "c1595v"
"+1847v" "c1596v"
"+1846v" "c1597v"
"+1845v" "c1598v"
"+1844v" "c1599v"
"+1843v" "c1600v"
"+1842v" "c1601v"
"+1841v" "c1602v"
"+1840v" "c1603v"
"+1839v" "c1604v"
"+1838v" "c1605v"
"+1837v" "c1606v"
"+1836v" "c1607v"
"+1835v" "c1608v"
"+1834v" "c1609v"
"+1833v" "c1610v"
"+1832v" "c1611v"
"+1831v" "c1612v"
"+1830v" "c1613v"
"+1829v" "c1614v"
"+1828v" "c1615v"
"+1827v" "c1616v"
"+1826v" "c1617v"
"+1825v" "c1618v"
"+1824v" "c1619v"
"+1823v" "c1620v"
"+1822v" "c1621v"
"+1821v" "c1622v"
"+1820v" "c1623v"
"+1819v" "c1624v"
"+1818v" "c1625v"
"+1817v" "c1626v"
"+1816v" "c1627v"
"+1815v" "c1628v"
"+1814v" "c1629v"
"+1813v" "c1630v"
"+1812v" "c1631v"
"+1811v" "c1632v"
"+1810v" "c1633v"
"+1809v" "c1634v"
"+1808v" "c1635v"
"+1807v" "c1636v"
"+1806v" "c1637v"
"+1805v" "c1638v"
"+1804v" "c1639v"
"+1803v" "c1640v"
"+1802v" "c1641v"
"+1801v" "c1642v"
"+1800v" "c1643v"
"+1799v" "c1644v"
"+1798v" "c1645v"
"+1797v" "c1646v"
"+1796v" "c1647v"
"+1795v" "c1648v"
"+1794v" "c1649v"
"+1793v" "c1650v"
"+1792v" "c1651v"
"+1791v" "c1652v"
"+1790v" "c1653v"
"+1789v" "c1654v"
"+1788v" "c1655v"
"+1787v" "c1656v"
"+1786v" "c1657v"
"+1785v" "c1658v"
"+1784v" "c1659v"
"+1783v" "c1660v"
"+1782v" "c1661v"
"+1781v" "c1662v"
"+1780v" "c1663v"
"+1779v" "c1664v"
"+1778v" "c1665v"
"+1777v" "c1666v"
"+1776v" "c1667v"
"+1775v" "c1668v"
"+1774v" "c1669v"
"+1773v" "c1670v"
"+1772v" "c1671v"
"+1771v" "c1672v"
"+1770v" "c1673v"
"+1769v" "c1674v"
"+1768v" "c1675v"
"+1767v" "c1676v"
"+1766v" "c1677v"
"+1765v" "c1678v"
"+1764v" "c1679v"
"+1763v" "c1680v"
"+1762v" "c1681v"
"+1761v" "c1682v"
"+1760v" "c1683v"
"+1759v" "c1684v"
"+1758v" "c1685v"
"+1757v" "c1686v"
"+1756v" "c1687v"
"+1755v" "c1688v"
"+1754v" "c1689v"
"+1753v" "c1690v"
"+1752v" "c1691v"
"+1751v" "c1692v"
"+1750v" "c1693v"
"+1749v" "c1694v"
"+1748v" "c1695v"
"+1747v" "c1696v"
"+1746v" "c1697v"
"+1745v" "c1698v"
"+1744v" "c1699v"
"+1743v" "c1700v"
"+1742v" "c1701v"
"+1741v" "c1702v"
"+1740v" "c1703v"
"+1739v" "c1704v"
"+1738v" "c1705v"
"+1737v" "c1706v"
"+1736v" "c1707v"
"+1735v" "c1708v"
"+1734v" "c1709v"
"+1733v" "c1710v"