HEADER
"PSFversion" "1.00"
"In1v" "in1v"
"Sv" "sv"
"S'v" "s__v"
"Vddv" "vddv"
"Outv" "outv"
"In0v" "in0v"
