HEADER
"PSFversion" "1.00"
"AxorBv" "axorbv"
"Av" "av"
"Bv" "bv"
"Vddv" "vddv"
"A'v" "a__v"
