HEADER
"PSFversion" "1.00"
"S_barv" "s_barv"
"Bv" "bv"
"Sv" "sv"
"Av" "av"
"Fv" "fv"
"Gndv" "gndv"
"Vddv" "vddv"
