HEADER
"PSFversion" "1.00"
"Vddv" "vddv"
"Bv" "bv"
"gnd!v" "0v"
