HEADER
"PSFversion" "1.00"
"design" "(\"Project_416\" \"CBA_16bit_tb_H2L\" \"schematic\" \"\")"
"simulator" "hspiceD"
"temperature" "25.0"
"host" ""
"date" "Dec  9 19:16:33 2016"
"title" ""
"analysisList" "()"
END
