HEADER
"PSFversion" "1.00"
"design" "(\"assignment4\" \"NAND_tb\" \"schematic\" \"\")"
"simulator" "hspiceD"
"temperature" "25.0"
"host" ""
"date" "Sep 29 13:32:24 2016"
"title" ""
"analysisList" "()"
END
