HEADER
"PSFversion" "1.00"
"design" "(\"Assignment2\" \"generate_tb\" \"schematic\" \"\")"
"simulator" "hspiceD"
"temperature" "25.0"
"host" ""
"date" "Nov 23 01:44:43 2016"
"title" ""
"analysisList" "()"
END
