HEADER
"PSFversion" "1.00"
"I0n" "Sum"
"I1n" "carry"
"Carryv" ":1v"
"Cinv" ":2v"
"Gv" ":3v"
"Gndv" ":4v"
"Pv" ":5v"
"Sumv" ":6v"
"Vddv" ":7v"
