HEADER
"PSFversion" "1.00"
"P0n" "NCSU_Analog_Parts_pmos4_spectre"
"N0n" "NCSU_Analog_Parts_nmos4_spectre"
"Gndv" ":1v"
"Inv" ":2v"
"In_barv" ":3v"
"Vddv" ":4v"
