HEADER
"PSFversion" "1.00"
"N1n N0n" "NCSU_Analog_Parts_nmos4_spectre"
"P1n P0n" "NCSU_Analog_Parts_pmos4_spectre"
"I1n I0n" "inverter"
"Av" ":1v"
"Bv" ":2v"
"Gndv" ":3v"
"Pv" ":4v"
"Vddv" ":5v"
