HEADER
"PSFversion" "1.00"
"P3n P2n P1n P0n" "NCSU_Analog_Parts_pmos4_spectre"
"N3n N2n N1n N0n" "NCSU_Analog_Parts_nmos4_spectre"
"I1n I0n" "inverter"
"Cinv" ":1v"
"Gndv" ":2v"
"Pv" ":3v"
"Sumv" ":4v"
"Vddv" ":5v"
