HEADER
"PSFversion" "1.00"
"V2v" "v2v"
"V1v" "v1v"
"C0v" "c0v"
"V2n V1n" "NCSU_Analog_Parts_vpulse_hspiceD"
"V0v" "v0v"
"C0n" "NCSU_Analog_Parts_cap_hspiceD"
"I1v" "xi1v"
"V0n" "NCSU_Analog_Parts_vdc_hspiceD"
"I3v" "xi3v"
"I1n" "inverter"
"I3n" "NAND2"
