HEADER
"PSFversion" "1.00"
"design" "(\"Project_416\" \"NOR2_tb\" \"schematic\" \"\")"
"simulator" "hspiceD"
"temperature" "25.0"
"host" ""
"date" "Nov 23 22:34:07 2016"
"title" ""
"analysisList" "()"
END
