HEADER
"PSFversion" "1.00"
"I0v" "xi0v"
"V1v" "v1v"
"I0n" "symbol"
"V0v" "v0v"
"V1n V0n" "NCSU_Analog_Parts_vdc_hspiceD"
