HEADER
"PSFversion" "1.00"
"design" "(\"Assignment2\" \"testbench\" \"schematic\" \"\")"
"simulator" "hspiceD"
"temperature" "25.0"
"host" ""
"date" "Sep 14 19:43:27 2016"
"title" ""
"analysisList" "()"
END
