HEADER
"PSFversion" "1.00"
"Time Stamp" "Sep 14 19:43:27 2016"
TYPE
"variable" STRUCT(
"value" FLOAT DOUBLE
) PROP( "key" "element" )
VALUE
"TEMPDC" "variable" ( 25.0 ) PROP( )
END
