HEADER
"PSFversion" "1.00"
"design" "(\"Project_416\" \"inverter_tb\" \"schematic\" \"\")"
"simulator" "hspiceD"
"temperature" "25.0"
"host" ""
"date" "Nov 23 19:59:09 2016"
"title" ""
"analysisList" "()"
END
