HEADER
"PSFversion" "1.00"
"16v" "n16v"
"15v" "n15v"
"14v" "n14v"
"11v" "n11v"
"10v" "n10v"
"9v" "n9v"
"8v" "n8v"
"7v" "n7v"
"Sv" "sv"
"Gndv" "gndv"
"Outv" "outv"
"Bv" "bv"
"Av" "av"
"Vddv" "vddv"
