HEADER
"PSFversion" "1.00"
"+3v" "m0v"
"+2v" "m1v"
"+1v" "m2v"
"+3n +2n" "NCSU_Analog_Parts_pmos4_hspiceD"
"+0v" "m3v"
"+1n +0n" "NCSU_Analog_Parts_nmos4_hspiceD"
