HEADER
"PSFversion" "1.00"
"6v" "n6v"
"Bv" "bv"
"Av" "av"
"AnorBv" "anorbv"
"Vddv" "vddv"
