HEADER
"PSFversion" "1.00"
"I5v" "xi5v"
"I4v" "xi4v"
"I6v" "xi6v"
"I5n I4n" "NAND2"
"I6n" "NOR2"
"Prop3v" "(FUNCTION (plus (root \"I5/B\")))v"
"Prop0v" "(FUNCTION (plus (root \"I4/A\")))v"
"Prop2v" "(FUNCTION (plus (root \"I5/A\")))v"
"Vddv" "(FUNCTION (plus (root \"I5/Vdd\") (root \"I4/Vdd\") (root \"I6/Vdd\")))v"
"gndv" "(FUNCTION (plus (root \"I5/gnd\") (root \"I4/gnd\") (root \"I6/gnd\")))v"
"bypassv" "(FUNCTION (plus (root \"I6/AnorB\")))v"
"Prop1v" "(FUNCTION (plus (root \"I4/B\")))v"
