HEADER
"PSFversion" "1.00"
"435v" "n435v"
"434v" "n434v"
"433v" "n433v"
"432v" "n432v"
"431v" "n431v"
"430v" "n430v"
"429v" "n429v"
"428v" "n428v"
"427v" "n427v"
"426v" "n426v"
"425v" "n425v"
"424v" "n424v"
"423v" "n423v"
"422v" "n422v"
"421v" "n421v"
"420v" "n420v"
"419v" "n419v"
"418v" "n418v"
"417v" "n417v"
"416v" "n416v"
"415v" "n415v"
"414v" "n414v"
"413v" "n413v"
"412v" "n412v"
"411v" "n411v"
"410v" "n410v"
"409v" "n409v"
"408v" "n408v"
"407v" "n407v"
"406v" "n406v"
"405v" "n405v"
"404v" "n404v"
"403v" "n403v"
"402v" "n402v"
"401v" "n401v"
"400v" "n400v"
"399v" "n399v"
"398v" "n398v"
"397v" "n397v"
"396v" "n396v"
"395v" "n395v"
"394v" "n394v"
"393v" "n393v"
"392v" "n392v"
"391v" "n391v"
"390v" "n390v"
"389v" "n389v"
"388v" "n388v"
"387v" "n387v"
"386v" "n386v"
"385v" "n385v"
"384v" "n384v"
"383v" "n383v"
"382v" "n382v"
"381v" "n381v"
"380v" "n380v"
"379v" "n379v"
"378v" "n378v"
"377v" "n377v"
"376v" "n376v"
"375v" "n375v"
"374v" "n374v"
"373v" "n373v"
"372v" "n372v"
"371v" "n371v"
"370v" "n370v"
"369v" "n369v"
"368v" "n368v"
"367v" "n367v"
"366v" "n366v"
"365v" "n365v"
"364v" "n364v"
"363v" "n363v"
"362v" "n362v"
"361v" "n361v"
"360v" "n360v"
"359v" "n359v"
"358v" "n358v"
"357v" "n357v"
"356v" "n356v"
"355v" "n355v"
"354v" "n354v"
"353v" "n353v"
"352v" "n352v"
"351v" "n351v"
"350v" "n350v"
"349v" "n349v"
"348v" "n348v"
"347v" "n347v"
"346v" "n346v"
"345v" "n345v"
"344v" "n344v"
"343v" "n343v"
"342v" "n342v"
"341v" "n341v"
"340v" "n340v"
"339v" "n339v"
"338v" "n338v"
"337v" "n337v"
"336v" "n336v"
"335v" "n335v"
"334v" "n334v"
"333v" "n333v"
"332v" "n332v"
"331v" "n331v"
"330v" "n330v"
"329v" "n329v"
"328v" "n328v"
"327v" "n327v"
"326v" "n326v"
"325v" "n325v"
"324v" "n324v"
"323v" "n323v"
"322v" "n322v"
"321v" "n321v"
"320v" "n320v"
"319v" "n319v"
"318v" "n318v"
"317v" "n317v"
"316v" "n316v"
"315v" "n315v"
"314v" "n314v"
"313v" "n313v"
"312v" "n312v"
"311v" "n311v"
"310v" "n310v"
"309v" "n309v"
"308v" "n308v"
"307v" "n307v"
"306v" "n306v"
"305v" "n305v"
"304v" "n304v"
"303v" "n303v"
"302v" "n302v"
"301v" "n301v"
"300v" "n300v"
"299v" "n299v"
"298v" "n298v"
"297v" "n297v"
"296v" "n296v"
"295v" "n295v"
"294v" "n294v"
"293v" "n293v"
"292v" "n292v"
"291v" "n291v"
"290v" "n290v"
"289v" "n289v"
"288v" "n288v"
"287v" "n287v"
"286v" "n286v"
"285v" "n285v"
"284v" "n284v"
"283v" "n283v"
"282v" "n282v"
"281v" "n281v"
"280v" "n280v"
"279v" "n279v"
"278v" "n278v"
"277v" "n277v"
"276v" "n276v"
"275v" "n275v"
"274v" "n274v"
"273v" "n273v"
"272v" "n272v"
"271v" "n271v"
"270v" "n270v"
"269v" "n269v"
"268v" "n268v"
"267v" "n267v"
"266v" "n266v"
"265v" "n265v"
"264v" "n264v"
"263v" "n263v"
"262v" "n262v"
"261v" "n261v"
"260v" "n260v"
"259v" "n259v"
"258v" "n258v"
"257v" "n257v"
"256v" "n256v"
"255v" "n255v"
"254v" "n254v"
"253v" "n253v"
"252v" "n252v"
"251v" "n251v"
"250v" "n250v"
"249v" "n249v"
"248v" "n248v"
"247v" "n247v"
"246v" "n246v"
"245v" "n245v"
"244v" "n244v"
"243v" "n243v"
"242v" "n242v"
"241v" "n241v"
"240v" "n240v"
"239v" "n239v"
"238v" "n238v"
"237v" "n237v"
"236v" "n236v"
"235v" "n235v"
"234v" "n234v"
"233v" "n233v"
"232v" "n232v"
"231v" "n231v"
"230v" "n230v"
"229v" "n229v"
"228v" "n228v"
"227v" "n227v"
"226v" "n226v"
"225v" "n225v"
"224v" "n224v"
"223v" "n223v"
"222v" "n222v"
"221v" "n221v"
"220v" "n220v"
"219v" "n219v"
"218v" "n218v"
"217v" "n217v"
"216v" "n216v"
"215v" "n215v"
"214v" "n214v"
"213v" "n213v"
"212v" "n212v"
"211v" "n211v"
"210v" "n210v"
"209v" "n209v"
"208v" "n208v"
"207v" "n207v"
"206v" "n206v"
"205v" "n205v"
"204v" "n204v"
"203v" "n203v"
"202v" "n202v"
"201v" "n201v"
"200v" "n200v"
"199v" "n199v"
"198v" "n198v"
"197v" "n197v"
"196v" "n196v"
"195v" "n195v"
"194v" "n194v"
"193v" "n193v"
"192v" "n192v"
"191v" "n191v"
"190v" "n190v"
"189v" "n189v"
"188v" "n188v"
"187v" "n187v"
"186v" "n186v"
"185v" "n185v"
"184v" "n184v"
"183v" "n183v"
"182v" "n182v"
"181v" "n181v"
"180v" "n180v"
"179v" "n179v"
"178v" "n178v"
"177v" "n177v"
"176v" "n176v"
"175v" "n175v"
"174v" "n174v"
"173v" "n173v"
"172v" "n172v"
"171v" "n171v"
"170v" "n170v"
"169v" "n169v"
"168v" "n168v"
"167v" "n167v"
"166v" "n166v"
"165v" "n165v"
"164v" "n164v"
"163v" "n163v"
"162v" "n162v"
"161v" "n161v"
"160v" "n160v"
"159v" "n159v"
"158v" "n158v"
"157v" "n157v"
"156v" "n156v"
"155v" "n155v"
"154v" "n154v"
"153v" "n153v"
"152v" "n152v"
"151v" "n151v"
"150v" "n150v"
"149v" "n149v"
"148v" "n148v"
"147v" "n147v"
"146v" "n146v"
"145v" "n145v"
"144v" "n144v"
"143v" "n143v"
"142v" "n142v"
"141v" "n141v"
"140v" "n140v"
"139v" "n139v"
"138v" "n138v"
"137v" "n137v"
"136v" "n136v"
"135v" "n135v"
"134v" "n134v"
"133v" "n133v"
"132v" "n132v"
"131v" "n131v"
"130v" "n130v"
"129v" "n129v"
"128v" "n128v"
"127v" "n127v"
"126v" "n126v"
"125v" "n125v"
"124v" "n124v"
"123v" "n123v"
"122v" "n122v"
"121v" "n121v"
"120v" "n120v"
"119v" "n119v"
"118v" "n118v"
"117v" "n117v"
"116v" "n116v"
"115v" "n115v"
"114v" "n114v"
"113v" "n113v"
"112v" "n112v"
"111v" "n111v"
"110v" "n110v"
"109v" "n109v"
"108v" "n108v"
"107v" "n107v"
"106v" "n106v"
"105v" "n105v"
"104v" "n104v"
"103v" "n103v"
"102v" "n102v"
"101v" "n101v"
"100v" "n100v"
"99v" "n99v"
"98v" "n98v"
"97v" "n97v"
"96v" "n96v"
"95v" "n95v"
"94v" "n94v"
"93v" "n93v"
"92v" "n92v"
"91v" "n91v"
"90v" "n90v"
"89v" "n89v"
"88v" "n88v"
"87v" "n87v"
"86v" "n86v"
"85v" "n85v"
"84v" "n84v"
"83v" "n83v"
"82v" "n82v"
"81v" "n81v"
"80v" "n80v"
"79v" "n79v"
"78v" "n78v"
"77v" "n77v"
"76v" "n76v"
"75v" "n75v"
"74v" "n74v"
"73v" "n73v"
"72v" "n72v"
"71v" "n71v"
"70v" "n70v"
"69v" "n69v"
"68v" "n68v"
"67v" "n67v"
"66v" "n66v"
"65v" "n65v"
"64v" "n64v"
"63v" "n63v"
"62v" "n62v"
"61v" "n61v"
"60v" "n60v"
"59v" "n59v"
"58v" "n58v"
"57v" "n57v"
"56v" "n56v"
"55v" "n55v"
"54v" "n54v"
"53v" "n53v"
"S2v" "s2v"
"A9v" "a9v"
"S1v" "s1v"
"A8v" "a8v"
"S0v" "s0v"
"A7v" "a7v"
"A6v" "a6v"
"A5v" "a5v"
"A4v" "a4v"
"A3v" "a3v"
"A2v" "a2v"
"A1v" "a1v"
"A0v" "a0v"
"B15v" "b15v"
"B14v" "b14v"
"B13v" "b13v"
"B12v" "b12v"
"B11v" "b11v"
"B10v" "b10v"
"A15v" "a15v"
"A14v" "a14v"
"A13v" "a13v"
"A12v" "a12v"
"A11v" "a11v"
"A10v" "a10v"
"Cinv" "cinv"
"S15v" "s15v"
"S14v" "s14v"
"S13v" "s13v"
"S12v" "s12v"
"S11v" "s11v"
"S10v" "s10v"
"Coutv" "coutv"
"B9v" "b9v"
"B8v" "b8v"
"B7v" "b7v"
"B6v" "b6v"
"B5v" "b5v"
"B4v" "b4v"
"S9v" "s9v"
"B3v" "b3v"
"S8v" "s8v"
"B2v" "b2v"
"S7v" "s7v"
"B1v" "b1v"
"S6v" "s6v"
"B0v" "b0v"
"S5v" "s5v"
"Vddv" "vddv"
"S4v" "s4v"
"S3v" "s3v"
