HEADER
"PSFversion" "1.00"
"Vddv" "vddv"
"Gndv" "gndv"
"Av" "av"
"AnorBv" "anorbv"
"Bv" "bv"
