HEADER
"PSFversion" "1.00"
"Vddv" "vddv"
"Av" "av"
"Pv" "pv"
"Bv" "bv"
