HEADER
"PSFversion" "1.00"
"Vddv" "vddv"
"Bv" "bv"
"Gndv" "gndv"
"Av" "av"
"Gv" "gv"
"Pv" "pv"
