HEADER
"PSFversion" "1.00"
"+1v" "m0v"
"+8v" "c1v"
"+1n" "NCSU_Analog_Parts_pmos4_hspiceD"
"+7v" "c2v"
"+6v" "c3v"
"+5v" "c4v"
"+4v" "c5v"
"+3v" "c6v"
"+2v" "c7v"
"+0v" "m8v"
"+8n +7n +6n +5n +4n +3n +2n" "NCSU_Analog_Parts_pcapacitor_hspiceD"
"+0n" "NCSU_Analog_Parts_nmos4_hspiceD"
