HEADER
"PSFversion" "1.00"
"6v" "n6v"
"5v" "n5v"
