HEADER
"PSFversion" "1.00"
"I0v" "xi0v"
"V1v" "v1v"
"I0n" "NOR2"
"V0v" "v0v"
"V2v" "v2v"
"V1n V0n" "NCSU_Analog_Parts_vpulse_hspiceD"
"C0v" "c0v"
"V2n" "NCSU_Analog_Parts_vdc_hspiceD"
"C0n" "NCSU_Analog_Parts_cap_hspiceD"
