HEADER
"PSFversion" "1.00"
"Vddv" "vddv"
"Inv" "inv"
"In_barv" "in_barv"
"Gndv" "gndv"
