HEADER
"PSFversion" "1.00"
"P0v" "mp0v"
"V1v" "v1v"
"P0n" "NCSU_Analog_Parts_pmos4_hspiceD"
"V0v" "v0v"
"V1n V0n" "NCSU_Analog_Parts_vdc_hspiceD"
