HEADER
"PSFversion" "1.00"
"__NEXT_FILE__" "Asst2_2"
