HEADER
"PSFversion" "1.00"
"design" "(\"Project_416\" \"CBA_16bit_tb\" \"schematic\" \"\")"
"simulator" "hspiceD"
"temperature" "25.0"
"host" ""
"date" "Dec  6 16:44:15 2016"
"title" ""
"analysisList" "()"
END
