HEADER
"PSFversion" "1.00"
"Time Stamp" "Dec  6 16:44:15 2016"
TYPE
"variable" STRUCT(
"value" FLOAT DOUBLE
) PROP( "key" "element" )
VALUE
"TEMPDC" "variable" ( 25.0 ) PROP( )
END
