HEADER
"PSFversion" "1.00"
"design" "(\"Project_416\" \"CBA_4bit_tb\" \"schematic\" \"\")"
"simulator" "hspiceD"
"temperature" "25.0"
"host" ""
"date" "Nov 23 23:23:29 2016"
"title" ""
"analysisList" "()"
END
