HEADER
"PSFversion" "1.00"
"Av" "av"
"AnandBv" "anandbv"
"Bv" "bv"
"Vddv" "vddv"
